LAMMPS data file - CGS

38 atoms
37 bonds

1 atom types
1 bond types

0.000000 3.200000 xlo xhi
0.000000 4.800000 ylo yhi
-0.002500 0.002500 zlo zhi

Atoms # hybrid 

1 1 1.415000 2.400000 0.000000 1 0.018500 6.400610e-03 0 4.055257e-05 4.055257e-05 0.000000e+00
2 1 1.425000 2.400000 0.000000 1 0.018500 6.400610e-03 0 3.311584e-05 4.682268e-05 0.000000e+00
3 1 1.435000 2.400000 0.000000 1 0.018500 6.400610e-03 0 2.472643e-05 5.174578e-05 0.000000e+00
4 1 1.445000 2.400000 0.000000 1 0.018500 6.400610e-03 0 1.562568e-05 5.518025e-05 0.000000e+00
5 1 1.455000 2.400000 0.000000 1 0.018500 6.400610e-03 0 6.075415e-06 5.702729e-05 0.000000e+00
6 1 1.465000 2.400000 0.000000 1 0.018500 6.400610e-03 0 -3.649634e-06 5.723375e-05 0.000000e+00
7 1 1.475000 2.400000 0.000000 1 0.018500 6.400610e-03 0 -1.326969e-05 5.579371e-05 0.000000e+00
8 1 1.485000 2.400000 0.000000 1 0.018500 6.400610e-03 0 -2.250800e-05 5.274858e-05 0.000000e+00
9 1 1.495000 2.400000 0.000000 1 0.018500 6.400610e-03 0 -3.109879e-05 4.818597e-05 0.000000e+00
10 1 1.505000 2.400000 0.000000 1 0.018500 6.400610e-03 0 -3.879493e-05 4.223713e-05 0.000000e+00
11 1 1.515000 2.400000 0.000000 1 0.018500 6.400610e-03 0 -4.537502e-05 3.507322e-05 0.000000e+00
12 1 1.525000 2.400000 0.000000 1 0.018500 6.400610e-03 0 -5.064974e-05 2.690031e-05 0.000000e+00
13 1 1.535000 2.400000 0.000000 1 0.018500 6.400610e-03 0 -5.446736e-05 1.795352e-05 0.000000e+00
14 1 1.545000 2.400000 0.000000 1 0.018500 6.400610e-03 0 -5.671806e-05 8.490247e-06 0.000000e+00
15 1 1.555000 2.400000 0.000000 1 0.018500 6.400610e-03 0 -5.733708e-05 -1.217276e-06 0.000000e+00
16 1 1.565000 2.400000 0.000000 1 0.018500 6.400610e-03 0 -5.630662e-05 -1.088978e-05 0.000000e+00
17 1 1.575000 2.400000 0.000000 1 0.018500 6.400610e-03 0 -5.365632e-05 -2.024900e-05 0.000000e+00
18 1 1.585000 2.400000 0.000000 1 0.018500 6.400610e-03 0 -4.946242e-05 -2.902570e-05 0.000000e+00
19 1 1.595000 2.400000 0.000000 1 0.018500 6.400610e-03 0 -4.384558e-05 -3.696738e-05 0.000000e+00
20 1 1.605000 2.400000 0.000000 1 0.018500 6.400610e-03 0 -3.696738e-05 -4.384558e-05 0.000000e+00
21 1 1.615000 2.400000 0.000000 1 0.018500 6.400610e-03 0 -2.902570e-05 -4.946242e-05 0.000000e+00
22 1 1.625000 2.400000 0.000000 1 0.018500 6.400610e-03 0 -2.024900e-05 -5.365632e-05 0.000000e+00
23 1 1.635000 2.400000 0.000000 1 0.018500 6.400610e-03 0 -1.088978e-05 -5.630662e-05 0.000000e+00
24 1 1.645000 2.400000 0.000000 1 0.018500 6.400610e-03 0 -1.217276e-06 -5.733708e-05 0.000000e+00
25 1 1.655000 2.400000 0.000000 1 0.018500 6.400610e-03 0 8.490247e-06 -5.671806e-05 0.000000e+00
26 1 1.665000 2.400000 0.000000 1 0.018500 6.400610e-03 0 1.795352e-05 -5.446736e-05 0.000000e+00
27 1 1.675000 2.400000 0.000000 1 0.018500 6.400610e-03 0 2.690031e-05 -5.064974e-05 0.000000e+00
28 1 1.685000 2.400000 0.000000 1 0.018500 6.400610e-03 0 3.507322e-05 -4.537502e-05 0.000000e+00
29 1 1.695000 2.400000 0.000000 1 0.018500 6.400610e-03 0 4.223713e-05 -3.879493e-05 0.000000e+00
30 1 1.705000 2.400000 0.000000 1 0.018500 6.400610e-03 0 4.818597e-05 -3.109879e-05 0.000000e+00
31 1 1.715000 2.400000 0.000000 1 0.018500 6.400610e-03 0 5.274858e-05 -2.250800e-05 0.000000e+00
32 1 1.725000 2.400000 0.000000 1 0.018500 6.400610e-03 0 5.579371e-05 -1.326969e-05 0.000000e+00
33 1 1.735000 2.400000 0.000000 1 0.018500 6.400610e-03 0 5.723375e-05 -3.649634e-06 0.000000e+00
34 1 1.745000 2.400000 0.000000 1 0.018500 6.400610e-03 0 5.702729e-05 6.075415e-06 0.000000e+00
35 1 1.755000 2.400000 0.000000 1 0.018500 6.400610e-03 0 5.518025e-05 1.562568e-05 0.000000e+00
36 1 1.765000 2.400000 0.000000 1 0.018500 6.400610e-03 0 5.174578e-05 2.472643e-05 0.000000e+00
37 1 1.775000 2.400000 0.000000 1 0.018500 6.400610e-03 0 4.682268e-05 3.311584e-05 0.000000e+00
38 1 1.785000 2.400000 0.000000 1 0.018500 6.400610e-03 0 4.055257e-05 4.055257e-05 0.000000e+00

Bonds

1 1 1 2
2 1 2 3
3 1 3 4
4 1 4 5
5 1 5 6
6 1 6 7
7 1 7 8
8 1 8 9
9 1 9 10
10 1 10 11
11 1 11 12
12 1 12 13
13 1 13 14
14 1 14 15
15 1 15 16
16 1 16 17
17 1 17 18
18 1 18 19
19 1 19 20
20 1 20 21
21 1 21 22
22 1 22 23
23 1 23 24
24 1 24 25
25 1 25 26
26 1 26 27
27 1 27 28
28 1 28 29
29 1 29 30
30 1 30 31
31 1 31 32
32 1 32 33
33 1 33 34
34 1 34 35
35 1 35 36
36 1 36 37
37 1 37 38
