LAMMPS data file

165 atoms
160 bonds

3 atom types
1 bond types

0.000000 100.000000 xlo xhi
0.000000 60.000000 ylo yhi
0.000000 50.000000 zlo zhi

Atoms # hybrid 

1 1 40.000000 0.500000 25.000000 1 1.000000 9.700000e-01 0 0.000000e+00 2.379994e-01 0.000000e+00
2 2 40.000000 0.812500 25.000000 1 1.000000 9.700000e-01 0 4.643139e-02 2.334264e-01 0.000000e+00
3 2 40.000000 1.125000 25.000000 1 1.000000 9.700000e-01 0 9.107844e-02 2.198828e-01 0.000000e+00
4 2 40.000000 1.437500 25.000000 1 1.000000 9.700000e-01 0 1.322254e-01 1.978893e-01 0.000000e+00
5 2 40.000000 1.750000 25.000000 1 1.000000 9.700000e-01 0 1.682910e-01 1.682910e-01 0.000000e+00
6 2 40.000000 2.062500 25.000000 1 1.000000 9.700000e-01 0 1.978893e-01 1.322254e-01 0.000000e+00
7 2 40.000000 2.375000 25.000000 1 1.000000 9.700000e-01 0 2.198828e-01 9.107844e-02 0.000000e+00
8 2 40.000000 2.687500 25.000000 1 1.000000 9.700000e-01 0 2.334264e-01 4.643139e-02 0.000000e+00
9 2 40.000000 3.000000 25.000000 1 1.000000 9.700000e-01 0 2.379994e-01 1.457326e-17 0.000000e+00
10 2 40.000000 3.312500 25.000000 1 1.000000 9.700000e-01 0 2.334264e-01 -4.643139e-02 0.000000e+00
11 2 40.000000 3.625000 25.000000 1 1.000000 9.700000e-01 0 2.198828e-01 -9.107844e-02 0.000000e+00
12 2 40.000000 3.937500 25.000000 1 1.000000 9.700000e-01 0 1.978893e-01 -1.322254e-01 0.000000e+00
13 2 40.000000 4.250000 25.000000 1 1.000000 9.700000e-01 0 1.682910e-01 -1.682910e-01 0.000000e+00
14 2 40.000000 4.562500 25.000000 1 1.000000 9.700000e-01 0 1.322254e-01 -1.978893e-01 0.000000e+00
15 2 40.000000 4.875000 25.000000 1 1.000000 9.700000e-01 0 9.107844e-02 -2.198828e-01 0.000000e+00
16 2 40.000000 5.187500 25.000000 1 1.000000 9.700000e-01 0 4.643139e-02 -2.334264e-01 0.000000e+00
17 2 40.000000 5.500000 25.000000 1 1.000000 9.700000e-01 0 2.914653e-17 -2.379994e-01 0.000000e+00
18 2 40.000000 5.812500 25.000000 1 1.000000 9.700000e-01 0 -4.643139e-02 -2.334264e-01 0.000000e+00
19 2 40.000000 6.125000 25.000000 1 1.000000 9.700000e-01 0 -9.107844e-02 -2.198828e-01 0.000000e+00
20 2 40.000000 6.437500 25.000000 1 1.000000 9.700000e-01 0 -1.322254e-01 -1.978893e-01 0.000000e+00
21 2 40.000000 6.750000 25.000000 1 1.000000 9.700000e-01 0 -1.682910e-01 -1.682910e-01 0.000000e+00
22 2 40.000000 7.062500 25.000000 1 1.000000 9.700000e-01 0 -1.978893e-01 -1.322254e-01 0.000000e+00
23 2 40.000000 7.375000 25.000000 1 1.000000 9.700000e-01 0 -2.198828e-01 -9.107844e-02 0.000000e+00
24 2 40.000000 7.687500 25.000000 1 1.000000 9.700000e-01 0 -2.334264e-01 -4.643139e-02 0.000000e+00
25 2 40.000000 8.000000 25.000000 1 1.000000 9.700000e-01 0 -2.379994e-01 -4.371979e-17 0.000000e+00
26 2 40.000000 8.312500 25.000000 1 1.000000 9.700000e-01 0 -2.334264e-01 4.643139e-02 0.000000e+00
27 2 40.000000 8.625000 25.000000 1 1.000000 9.700000e-01 0 -2.198828e-01 9.107844e-02 0.000000e+00
28 2 40.000000 8.937500 25.000000 1 1.000000 9.700000e-01 0 -1.978893e-01 1.322254e-01 0.000000e+00
29 2 40.000000 9.250000 25.000000 1 1.000000 9.700000e-01 0 -1.682910e-01 1.682910e-01 0.000000e+00
30 2 40.000000 9.562500 25.000000 1 1.000000 9.700000e-01 0 -1.322254e-01 1.978893e-01 0.000000e+00
31 2 40.000000 9.875000 25.000000 1 1.000000 9.700000e-01 0 -9.107844e-02 2.198828e-01 0.000000e+00
32 2 40.000000 10.187500 25.000000 1 1.000000 9.700000e-01 0 -4.643139e-02 2.334264e-01 0.000000e+00
33 3 40.000000 10.500000 25.000000 1 1.000000 9.700000e-01 0 -5.829305e-17 2.379994e-01 0.000000e+00
34 1 45.000000 0.500000 25.000000 2 1.000000 9.700000e-01 0 0.000000e+00 2.379994e-01 0.000000e+00
35 2 45.000000 0.812500 25.000000 2 1.000000 9.700000e-01 0 4.643139e-02 2.334264e-01 0.000000e+00
36 2 45.000000 1.125000 25.000000 2 1.000000 9.700000e-01 0 9.107844e-02 2.198828e-01 0.000000e+00
37 2 45.000000 1.437500 25.000000 2 1.000000 9.700000e-01 0 1.322254e-01 1.978893e-01 0.000000e+00
38 2 45.000000 1.750000 25.000000 2 1.000000 9.700000e-01 0 1.682910e-01 1.682910e-01 0.000000e+00
39 2 45.000000 2.062500 25.000000 2 1.000000 9.700000e-01 0 1.978893e-01 1.322254e-01 0.000000e+00
40 2 45.000000 2.375000 25.000000 2 1.000000 9.700000e-01 0 2.198828e-01 9.107844e-02 0.000000e+00
41 2 45.000000 2.687500 25.000000 2 1.000000 9.700000e-01 0 2.334264e-01 4.643139e-02 0.000000e+00
42 2 45.000000 3.000000 25.000000 2 1.000000 9.700000e-01 0 2.379994e-01 1.457326e-17 0.000000e+00
43 2 45.000000 3.312500 25.000000 2 1.000000 9.700000e-01 0 2.334264e-01 -4.643139e-02 0.000000e+00
44 2 45.000000 3.625000 25.000000 2 1.000000 9.700000e-01 0 2.198828e-01 -9.107844e-02 0.000000e+00
45 2 45.000000 3.937500 25.000000 2 1.000000 9.700000e-01 0 1.978893e-01 -1.322254e-01 0.000000e+00
46 2 45.000000 4.250000 25.000000 2 1.000000 9.700000e-01 0 1.682910e-01 -1.682910e-01 0.000000e+00
47 2 45.000000 4.562500 25.000000 2 1.000000 9.700000e-01 0 1.322254e-01 -1.978893e-01 0.000000e+00
48 2 45.000000 4.875000 25.000000 2 1.000000 9.700000e-01 0 9.107844e-02 -2.198828e-01 0.000000e+00
49 2 45.000000 5.187500 25.000000 2 1.000000 9.700000e-01 0 4.643139e-02 -2.334264e-01 0.000000e+00
50 2 45.000000 5.500000 25.000000 2 1.000000 9.700000e-01 0 2.914653e-17 -2.379994e-01 0.000000e+00
51 2 45.000000 5.812500 25.000000 2 1.000000 9.700000e-01 0 -4.643139e-02 -2.334264e-01 0.000000e+00
52 2 45.000000 6.125000 25.000000 2 1.000000 9.700000e-01 0 -9.107844e-02 -2.198828e-01 0.000000e+00
53 2 45.000000 6.437500 25.000000 2 1.000000 9.700000e-01 0 -1.322254e-01 -1.978893e-01 0.000000e+00
54 2 45.000000 6.750000 25.000000 2 1.000000 9.700000e-01 0 -1.682910e-01 -1.682910e-01 0.000000e+00
55 2 45.000000 7.062500 25.000000 2 1.000000 9.700000e-01 0 -1.978893e-01 -1.322254e-01 0.000000e+00
56 2 45.000000 7.375000 25.000000 2 1.000000 9.700000e-01 0 -2.198828e-01 -9.107844e-02 0.000000e+00
57 2 45.000000 7.687500 25.000000 2 1.000000 9.700000e-01 0 -2.334264e-01 -4.643139e-02 0.000000e+00
58 2 45.000000 8.000000 25.000000 2 1.000000 9.700000e-01 0 -2.379994e-01 -4.371979e-17 0.000000e+00
59 2 45.000000 8.312500 25.000000 2 1.000000 9.700000e-01 0 -2.334264e-01 4.643139e-02 0.000000e+00
60 2 45.000000 8.625000 25.000000 2 1.000000 9.700000e-01 0 -2.198828e-01 9.107844e-02 0.000000e+00
61 2 45.000000 8.937500 25.000000 2 1.000000 9.700000e-01 0 -1.978893e-01 1.322254e-01 0.000000e+00
62 2 45.000000 9.250000 25.000000 2 1.000000 9.700000e-01 0 -1.682910e-01 1.682910e-01 0.000000e+00
63 2 45.000000 9.562500 25.000000 2 1.000000 9.700000e-01 0 -1.322254e-01 1.978893e-01 0.000000e+00
64 2 45.000000 9.875000 25.000000 2 1.000000 9.700000e-01 0 -9.107844e-02 2.198828e-01 0.000000e+00
65 2 45.000000 10.187500 25.000000 2 1.000000 9.700000e-01 0 -4.643139e-02 2.334264e-01 0.000000e+00
66 3 45.000000 10.500000 25.000000 2 1.000000 9.700000e-01 0 -5.829305e-17 2.379994e-01 0.000000e+00
67 1 50.000000 0.500000 25.000000 3 1.000000 9.700000e-01 0 0.000000e+00 2.379994e-01 0.000000e+00
68 2 50.000000 0.812500 25.000000 3 1.000000 9.700000e-01 0 4.643139e-02 2.334264e-01 0.000000e+00
69 2 50.000000 1.125000 25.000000 3 1.000000 9.700000e-01 0 9.107844e-02 2.198828e-01 0.000000e+00
70 2 50.000000 1.437500 25.000000 3 1.000000 9.700000e-01 0 1.322254e-01 1.978893e-01 0.000000e+00
71 2 50.000000 1.750000 25.000000 3 1.000000 9.700000e-01 0 1.682910e-01 1.682910e-01 0.000000e+00
72 2 50.000000 2.062500 25.000000 3 1.000000 9.700000e-01 0 1.978893e-01 1.322254e-01 0.000000e+00
73 2 50.000000 2.375000 25.000000 3 1.000000 9.700000e-01 0 2.198828e-01 9.107844e-02 0.000000e+00
74 2 50.000000 2.687500 25.000000 3 1.000000 9.700000e-01 0 2.334264e-01 4.643139e-02 0.000000e+00
75 2 50.000000 3.000000 25.000000 3 1.000000 9.700000e-01 0 2.379994e-01 1.457326e-17 0.000000e+00
76 2 50.000000 3.312500 25.000000 3 1.000000 9.700000e-01 0 2.334264e-01 -4.643139e-02 0.000000e+00
77 2 50.000000 3.625000 25.000000 3 1.000000 9.700000e-01 0 2.198828e-01 -9.107844e-02 0.000000e+00
78 2 50.000000 3.937500 25.000000 3 1.000000 9.700000e-01 0 1.978893e-01 -1.322254e-01 0.000000e+00
79 2 50.000000 4.250000 25.000000 3 1.000000 9.700000e-01 0 1.682910e-01 -1.682910e-01 0.000000e+00
80 2 50.000000 4.562500 25.000000 3 1.000000 9.700000e-01 0 1.322254e-01 -1.978893e-01 0.000000e+00
81 2 50.000000 4.875000 25.000000 3 1.000000 9.700000e-01 0 9.107844e-02 -2.198828e-01 0.000000e+00
82 2 50.000000 5.187500 25.000000 3 1.000000 9.700000e-01 0 4.643139e-02 -2.334264e-01 0.000000e+00
83 2 50.000000 5.500000 25.000000 3 1.000000 9.700000e-01 0 2.914653e-17 -2.379994e-01 0.000000e+00
84 2 50.000000 5.812500 25.000000 3 1.000000 9.700000e-01 0 -4.643139e-02 -2.334264e-01 0.000000e+00
85 2 50.000000 6.125000 25.000000 3 1.000000 9.700000e-01 0 -9.107844e-02 -2.198828e-01 0.000000e+00
86 2 50.000000 6.437500 25.000000 3 1.000000 9.700000e-01 0 -1.322254e-01 -1.978893e-01 0.000000e+00
87 2 50.000000 6.750000 25.000000 3 1.000000 9.700000e-01 0 -1.682910e-01 -1.682910e-01 0.000000e+00
88 2 50.000000 7.062500 25.000000 3 1.000000 9.700000e-01 0 -1.978893e-01 -1.322254e-01 0.000000e+00
89 2 50.000000 7.375000 25.000000 3 1.000000 9.700000e-01 0 -2.198828e-01 -9.107844e-02 0.000000e+00
90 2 50.000000 7.687500 25.000000 3 1.000000 9.700000e-01 0 -2.334264e-01 -4.643139e-02 0.000000e+00
91 2 50.000000 8.000000 25.000000 3 1.000000 9.700000e-01 0 -2.379994e-01 -4.371979e-17 0.000000e+00
92 2 50.000000 8.312500 25.000000 3 1.000000 9.700000e-01 0 -2.334264e-01 4.643139e-02 0.000000e+00
93 2 50.000000 8.625000 25.000000 3 1.000000 9.700000e-01 0 -2.198828e-01 9.107844e-02 0.000000e+00
94 2 50.000000 8.937500 25.000000 3 1.000000 9.700000e-01 0 -1.978893e-01 1.322254e-01 0.000000e+00
95 2 50.000000 9.250000 25.000000 3 1.000000 9.700000e-01 0 -1.682910e-01 1.682910e-01 0.000000e+00
96 2 50.000000 9.562500 25.000000 3 1.000000 9.700000e-01 0 -1.322254e-01 1.978893e-01 0.000000e+00
97 2 50.000000 9.875000 25.000000 3 1.000000 9.700000e-01 0 -9.107844e-02 2.198828e-01 0.000000e+00
98 2 50.000000 10.187500 25.000000 3 1.000000 9.700000e-01 0 -4.643139e-02 2.334264e-01 0.000000e+00
99 3 50.000000 10.500000 25.000000 3 1.000000 9.700000e-01 0 -5.829305e-17 2.379994e-01 0.000000e+00
100 1 55.000000 0.500000 25.000000 4 1.000000 9.700000e-01 0 0.000000e+00 2.379994e-01 0.000000e+00
101 2 55.000000 0.812500 25.000000 4 1.000000 9.700000e-01 0 4.643139e-02 2.334264e-01 0.000000e+00
102 2 55.000000 1.125000 25.000000 4 1.000000 9.700000e-01 0 9.107844e-02 2.198828e-01 0.000000e+00
103 2 55.000000 1.437500 25.000000 4 1.000000 9.700000e-01 0 1.322254e-01 1.978893e-01 0.000000e+00
104 2 55.000000 1.750000 25.000000 4 1.000000 9.700000e-01 0 1.682910e-01 1.682910e-01 0.000000e+00
105 2 55.000000 2.062500 25.000000 4 1.000000 9.700000e-01 0 1.978893e-01 1.322254e-01 0.000000e+00
106 2 55.000000 2.375000 25.000000 4 1.000000 9.700000e-01 0 2.198828e-01 9.107844e-02 0.000000e+00
107 2 55.000000 2.687500 25.000000 4 1.000000 9.700000e-01 0 2.334264e-01 4.643139e-02 0.000000e+00
108 2 55.000000 3.000000 25.000000 4 1.000000 9.700000e-01 0 2.379994e-01 1.457326e-17 0.000000e+00
109 2 55.000000 3.312500 25.000000 4 1.000000 9.700000e-01 0 2.334264e-01 -4.643139e-02 0.000000e+00
110 2 55.000000 3.625000 25.000000 4 1.000000 9.700000e-01 0 2.198828e-01 -9.107844e-02 0.000000e+00
111 2 55.000000 3.937500 25.000000 4 1.000000 9.700000e-01 0 1.978893e-01 -1.322254e-01 0.000000e+00
112 2 55.000000 4.250000 25.000000 4 1.000000 9.700000e-01 0 1.682910e-01 -1.682910e-01 0.000000e+00
113 2 55.000000 4.562500 25.000000 4 1.000000 9.700000e-01 0 1.322254e-01 -1.978893e-01 0.000000e+00
114 2 55.000000 4.875000 25.000000 4 1.000000 9.700000e-01 0 9.107844e-02 -2.198828e-01 0.000000e+00
115 2 55.000000 5.187500 25.000000 4 1.000000 9.700000e-01 0 4.643139e-02 -2.334264e-01 0.000000e+00
116 2 55.000000 5.500000 25.000000 4 1.000000 9.700000e-01 0 2.914653e-17 -2.379994e-01 0.000000e+00
117 2 55.000000 5.812500 25.000000 4 1.000000 9.700000e-01 0 -4.643139e-02 -2.334264e-01 0.000000e+00
118 2 55.000000 6.125000 25.000000 4 1.000000 9.700000e-01 0 -9.107844e-02 -2.198828e-01 0.000000e+00
119 2 55.000000 6.437500 25.000000 4 1.000000 9.700000e-01 0 -1.322254e-01 -1.978893e-01 0.000000e+00
120 2 55.000000 6.750000 25.000000 4 1.000000 9.700000e-01 0 -1.682910e-01 -1.682910e-01 0.000000e+00
121 2 55.000000 7.062500 25.000000 4 1.000000 9.700000e-01 0 -1.978893e-01 -1.322254e-01 0.000000e+00
122 2 55.000000 7.375000 25.000000 4 1.000000 9.700000e-01 0 -2.198828e-01 -9.107844e-02 0.000000e+00
123 2 55.000000 7.687500 25.000000 4 1.000000 9.700000e-01 0 -2.334264e-01 -4.643139e-02 0.000000e+00
124 2 55.000000 8.000000 25.000000 4 1.000000 9.700000e-01 0 -2.379994e-01 -4.371979e-17 0.000000e+00
125 2 55.000000 8.312500 25.000000 4 1.000000 9.700000e-01 0 -2.334264e-01 4.643139e-02 0.000000e+00
126 2 55.000000 8.625000 25.000000 4 1.000000 9.700000e-01 0 -2.198828e-01 9.107844e-02 0.000000e+00
127 2 55.000000 8.937500 25.000000 4 1.000000 9.700000e-01 0 -1.978893e-01 1.322254e-01 0.000000e+00
128 2 55.000000 9.250000 25.000000 4 1.000000 9.700000e-01 0 -1.682910e-01 1.682910e-01 0.000000e+00
129 2 55.000000 9.562500 25.000000 4 1.000000 9.700000e-01 0 -1.322254e-01 1.978893e-01 0.000000e+00
130 2 55.000000 9.875000 25.000000 4 1.000000 9.700000e-01 0 -9.107844e-02 2.198828e-01 0.000000e+00
131 2 55.000000 10.187500 25.000000 4 1.000000 9.700000e-01 0 -4.643139e-02 2.334264e-01 0.000000e+00
132 3 55.000000 10.500000 25.000000 4 1.000000 9.700000e-01 0 -5.829305e-17 2.379994e-01 0.000000e+00
133 1 60.000000 0.500000 25.000000 5 1.000000 9.700000e-01 0 0.000000e+00 2.379994e-01 0.000000e+00
134 2 60.000000 0.812500 25.000000 5 1.000000 9.700000e-01 0 4.643139e-02 2.334264e-01 0.000000e+00
135 2 60.000000 1.125000 25.000000 5 1.000000 9.700000e-01 0 9.107844e-02 2.198828e-01 0.000000e+00
136 2 60.000000 1.437500 25.000000 5 1.000000 9.700000e-01 0 1.322254e-01 1.978893e-01 0.000000e+00
137 2 60.000000 1.750000 25.000000 5 1.000000 9.700000e-01 0 1.682910e-01 1.682910e-01 0.000000e+00
138 2 60.000000 2.062500 25.000000 5 1.000000 9.700000e-01 0 1.978893e-01 1.322254e-01 0.000000e+00
139 2 60.000000 2.375000 25.000000 5 1.000000 9.700000e-01 0 2.198828e-01 9.107844e-02 0.000000e+00
140 2 60.000000 2.687500 25.000000 5 1.000000 9.700000e-01 0 2.334264e-01 4.643139e-02 0.000000e+00
141 2 60.000000 3.000000 25.000000 5 1.000000 9.700000e-01 0 2.379994e-01 1.457326e-17 0.000000e+00
142 2 60.000000 3.312500 25.000000 5 1.000000 9.700000e-01 0 2.334264e-01 -4.643139e-02 0.000000e+00
143 2 60.000000 3.625000 25.000000 5 1.000000 9.700000e-01 0 2.198828e-01 -9.107844e-02 0.000000e+00
144 2 60.000000 3.937500 25.000000 5 1.000000 9.700000e-01 0 1.978893e-01 -1.322254e-01 0.000000e+00
145 2 60.000000 4.250000 25.000000 5 1.000000 9.700000e-01 0 1.682910e-01 -1.682910e-01 0.000000e+00
146 2 60.000000 4.562500 25.000000 5 1.000000 9.700000e-01 0 1.322254e-01 -1.978893e-01 0.000000e+00
147 2 60.000000 4.875000 25.000000 5 1.000000 9.700000e-01 0 9.107844e-02 -2.198828e-01 0.000000e+00
148 2 60.000000 5.187500 25.000000 5 1.000000 9.700000e-01 0 4.643139e-02 -2.334264e-01 0.000000e+00
149 2 60.000000 5.500000 25.000000 5 1.000000 9.700000e-01 0 2.914653e-17 -2.379994e-01 0.000000e+00
150 2 60.000000 5.812500 25.000000 5 1.000000 9.700000e-01 0 -4.643139e-02 -2.334264e-01 0.000000e+00
151 2 60.000000 6.125000 25.000000 5 1.000000 9.700000e-01 0 -9.107844e-02 -2.198828e-01 0.000000e+00
152 2 60.000000 6.437500 25.000000 5 1.000000 9.700000e-01 0 -1.322254e-01 -1.978893e-01 0.000000e+00
153 2 60.000000 6.750000 25.000000 5 1.000000 9.700000e-01 0 -1.682910e-01 -1.682910e-01 0.000000e+00
154 2 60.000000 7.062500 25.000000 5 1.000000 9.700000e-01 0 -1.978893e-01 -1.322254e-01 0.000000e+00
155 2 60.000000 7.375000 25.000000 5 1.000000 9.700000e-01 0 -2.198828e-01 -9.107844e-02 0.000000e+00
156 2 60.000000 7.687500 25.000000 5 1.000000 9.700000e-01 0 -2.334264e-01 -4.643139e-02 0.000000e+00
157 2 60.000000 8.000000 25.000000 5 1.000000 9.700000e-01 0 -2.379994e-01 -4.371979e-17 0.000000e+00
158 2 60.000000 8.312500 25.000000 5 1.000000 9.700000e-01 0 -2.334264e-01 4.643139e-02 0.000000e+00
159 2 60.000000 8.625000 25.000000 5 1.000000 9.700000e-01 0 -2.198828e-01 9.107844e-02 0.000000e+00
160 2 60.000000 8.937500 25.000000 5 1.000000 9.700000e-01 0 -1.978893e-01 1.322254e-01 0.000000e+00
161 2 60.000000 9.250000 25.000000 5 1.000000 9.700000e-01 0 -1.682910e-01 1.682910e-01 0.000000e+00
162 2 60.000000 9.562500 25.000000 5 1.000000 9.700000e-01 0 -1.322254e-01 1.978893e-01 0.000000e+00
163 2 60.000000 9.875000 25.000000 5 1.000000 9.700000e-01 0 -9.107844e-02 2.198828e-01 0.000000e+00
164 2 60.000000 10.187500 25.000000 5 1.000000 9.700000e-01 0 -4.643139e-02 2.334264e-01 0.000000e+00
165 3 60.000000 10.500000 25.000000 5 1.000000 9.700000e-01 0 -5.829305e-17 2.379994e-01 0.000000e+00

Bonds

1 1 1 2
2 1 2 3
3 1 3 4
4 1 4 5
5 1 5 6
6 1 6 7
7 1 7 8
8 1 8 9
9 1 9 10
10 1 10 11
11 1 11 12
12 1 12 13
13 1 13 14
14 1 14 15
15 1 15 16
16 1 16 17
17 1 17 18
18 1 18 19
19 1 19 20
20 1 20 21
21 1 21 22
22 1 22 23
23 1 23 24
24 1 24 25
25 1 25 26
26 1 26 27
27 1 27 28
28 1 28 29
29 1 29 30
30 1 30 31
31 1 31 32
32 1 32 33
33 1 34 35
34 1 35 36
35 1 36 37
36 1 37 38
37 1 38 39
38 1 39 40
39 1 40 41
40 1 41 42
41 1 42 43
42 1 43 44
43 1 44 45
44 1 45 46
45 1 46 47
46 1 47 48
47 1 48 49
48 1 49 50
49 1 50 51
50 1 51 52
51 1 52 53
52 1 53 54
53 1 54 55
54 1 55 56
55 1 56 57
56 1 57 58
57 1 58 59
58 1 59 60
59 1 60 61
60 1 61 62
61 1 62 63
62 1 63 64
63 1 64 65
64 1 65 66
65 1 67 68
66 1 68 69
67 1 69 70
68 1 70 71
69 1 71 72
70 1 72 73
71 1 73 74
72 1 74 75
73 1 75 76
74 1 76 77
75 1 77 78
76 1 78 79
77 1 79 80
78 1 80 81
79 1 81 82
80 1 82 83
81 1 83 84
82 1 84 85
83 1 85 86
84 1 86 87
85 1 87 88
86 1 88 89
87 1 89 90
88 1 90 91
89 1 91 92
90 1 92 93
91 1 93 94
92 1 94 95
93 1 95 96
94 1 96 97
95 1 97 98
96 1 98 99
97 1 100 101
98 1 101 102
99 1 102 103
100 1 103 104
101 1 104 105
102 1 105 106
103 1 106 107
104 1 107 108
105 1 108 109
106 1 109 110
107 1 110 111
108 1 111 112
109 1 112 113
110 1 113 114
111 1 114 115
112 1 115 116
113 1 116 117
114 1 117 118
115 1 118 119
116 1 119 120
117 1 120 121
118 1 121 122
119 1 122 123
120 1 123 124
121 1 124 125
122 1 125 126
123 1 126 127
124 1 127 128
125 1 128 129
126 1 129 130
127 1 130 131
128 1 131 132
129 1 133 134
130 1 134 135
131 1 135 136
132 1 136 137
133 1 137 138
134 1 138 139
135 1 139 140
136 1 140 141
137 1 141 142
138 1 142 143
139 1 143 144
140 1 144 145
141 1 145 146
142 1 146 147
143 1 147 148
144 1 148 149
145 1 149 150
146 1 150 151
147 1 151 152
148 1 152 153
149 1 153 154
150 1 154 155
151 1 155 156
152 1 156 157
153 1 157 158
154 1 158 159
155 1 159 160
156 1 160 161
157 1 161 162
158 1 162 163
159 1 163 164
160 1 164 165
